REMARK  Name = output_files/generation_1/ligand_1_1.pdb
REMARK  8 active torsions:
REMARK  status: ('A' for Active; 'I' for Inactive)
REMARK    1  A    between atoms: C1_1  and  C2_2
REMARK    2  A    between atoms: C2_2  and  N1_3
REMARK    3  A    between atoms: N3_14  and  C11_15
REMARK    4  A    between atoms: C11_15  and  C12_16
REMARK    5  A    between atoms: C11_15  and  C13_17
REMARK    6  A    between atoms: N4_19  and  C14_20
REMARK    7  A    between atoms: C14_20  and  C15_21
REMARK    8  A    between atoms: C15_21  and  N5_23
REMARK                            x       y       z     vdW  Elec       q    Type
REMARK                         _______ _______ _______ _____ _____    ______ ____
ROOT
ATOM      1  N1  UNL     1      -2.248   1.051   0.566  0.00  0.00    -0.281 N 
ATOM      2  C3  UNL     1      -3.171   0.099   0.935  0.00  0.00    +0.263 A 
ATOM      3  O1  UNL     1      -4.241   0.441   1.514  0.00  0.00    -0.267 OA
ATOM      4  C4  UNL     1      -2.935  -1.261   0.672  0.00  0.00    +0.065 A 
ATOM      5  C5  UNL     1      -3.858  -2.268   1.016  0.00  0.00    +0.015 A 
ATOM      6  C6  UNL     1      -3.574  -3.607   0.725  0.00  0.00    +0.001 A 
ATOM      7  C7  UNL     1      -2.375  -3.950   0.093  0.00  0.00    +0.002 A 
ATOM      8  C8  UNL     1      -1.455  -2.956  -0.249  0.00  0.00    +0.028 A 
ATOM      9  C9  UNL     1      -1.733  -1.614   0.039  0.00  0.00    +0.080 A 
ATOM     10  N2  UNL     1      -0.837  -0.654  -0.280  0.00  0.00    -0.216 NA
ATOM     11  C10 UNL     1      -1.060   0.662  -0.021  0.00  0.00    +0.199 A 
ATOM     12  N3  UNL     1      -0.028   1.619  -0.350  0.00  0.00    -0.304 N 
ATOM     13  H10 UNL     1      -0.002   2.543   0.133  0.00  0.00    +0.150 HD
ENDROOT
BRANCH   1  15
ATOM     14  C1  UNL     1      -2.057   2.898   2.197  0.00  0.00    +0.027 C 
ATOM     15  C2  UNL     1      -2.548   2.477   0.814  0.00  0.00    +0.125 C 
ENDBRANCH   1  15
BRANCH  12  16
ATOM     16  C11 UNL     1       1.062   1.364  -1.304  0.00  0.00    +0.156 C 
ATOM     17  C12 UNL     1       0.515   0.897  -2.659  0.00  0.00    +0.038 C 
BRANCH  16  18
ATOM     18  C13 UNL     1       2.087   0.403  -0.747  0.00  0.00    +0.233 C 
ATOM     19  O2  UNL     1       1.903  -0.144   0.375  0.00  0.00    -0.274 OA
ATOM     20  N4  UNL     1       3.293   0.140  -1.480  0.00  0.00    -0.305 N 
ATOM     21  H15 UNL     1       3.456   0.629  -2.388  0.00  0.00    +0.149 HD
BRANCH  20  22
ATOM     22  C14 UNL     1       4.307  -0.799  -1.007  0.00  0.00    +0.205 C 
BRANCH  22  23
ATOM     23  C15 UNL     1       5.068  -0.206   0.137  0.00  0.00    +0.285 C 
ATOM     24  O3  UNL     1       5.893   0.724  -0.077  0.00  0.00    -0.269 OA
BRANCH  23  25
ATOM     25  N5  UNL     1       4.834  -0.678   1.466  0.00  0.00    -0.001 NA
ATOM     26  N6  UNL     1       5.431  -0.196   2.429  0.00  0.00    -0.170 NA
ATOM     27  N7  UNL     1       6.027   0.285   3.391  0.00  0.00    +0.066 NA
ENDBRANCH  23  25
ENDBRANCH  22  23
ENDBRANCH  20  22
ENDBRANCH  16  18
ENDBRANCH  12  16
TORSDOF 6
