REMARK  Name = output_files/generation_1/ligand_1_0.pdb
REMARK  1 active torsions:
REMARK  status: ('A' for Active; 'I' for Inactive)
REMARK    1  A    between atoms: C5_6  and  C6_7
REMARK                            x       y       z     vdW  Elec       q    Type
REMARK                         _______ _______ _______ _____ _____    ______ ____
ROOT
ATOM      1  O1  UNL     1      -2.928  -1.954   1.330  0.00  0.00    -0.286 OA
ATOM      2  C1  UNL     1      -2.684  -1.000   0.537  0.00  0.00    +0.201 A 
ATOM      3  C2  UNL     1      -1.350  -0.572   0.315  0.00  0.00    +0.073 A 
ATOM      4  C3  UNL     1      -0.307  -1.195   0.962  0.00  0.00    +0.016 C 
ATOM      5  C4  UNL     1       1.186  -0.944   0.909  0.00  0.00    +0.010 C 
ATOM      6  C5  UNL     1       1.909  -0.020   0.204  0.00  0.00    -0.010 C 
ATOM      7  C12 UNL     1       1.296   0.965  -0.713  0.00  0.00    +0.063 C 
ATOM      8  C13 UNL     1       0.021   0.905  -0.803  0.00  0.00    -0.073 C 
ATOM      9  C14 UNL     1      -1.176   0.503  -0.589  0.00  0.00    +0.182 A 
ATOM     10  O2  UNL     1      -2.199   1.085  -1.201  0.00  0.00    -0.446 OA
ATOM     11  C15 UNL     1      -3.454   0.703  -1.009  0.00  0.00    +0.140 A 
ATOM     12  C16 UNL     1      -4.488   1.359  -1.685  0.00  0.00    +0.047 A 
ATOM     13  C17 UNL     1      -5.814   0.965  -1.492  0.00  0.00    +0.004 A 
ATOM     14  C18 UNL     1      -6.114  -0.086  -0.622  0.00  0.00    +0.001 A 
ATOM     15  C19 UNL     1      -5.089  -0.749   0.060  0.00  0.00    +0.015 A 
ATOM     16  C20 UNL     1      -3.748  -0.361  -0.127  0.00  0.00    +0.065 A 
ENDROOT
BRANCH   6  17
ATOM     17  C6  UNL     1       3.388   0.010   0.348  0.00  0.00    -0.017 A 
ATOM     18  C7  UNL     1       4.210   0.118  -0.789  0.00  0.00    +0.008 A 
ATOM     19  C8  UNL     1       5.602   0.152  -0.656  0.00  0.00    +0.001 A 
ATOM     20  C9  UNL     1       6.186   0.083   0.611  0.00  0.00    +0.000 A 
ATOM     21  C10 UNL     1       5.381  -0.019   1.747  0.00  0.00    +0.001 A 
ATOM     22  C11 UNL     1       3.989  -0.055   1.620  0.00  0.00    +0.008 A 
ENDBRANCH   6  17
TORSDOF 1
