REMARK  Name = output_files/generation_1/ligand_1_4.pdb
REMARK  6 active torsions:
REMARK  status: ('A' for Active; 'I' for Inactive)
REMARK    1  A    between atoms: C1_1  and  C2_2
REMARK    2  A    between atoms: C3_3  and  C4_4
REMARK    3  A    between atoms: C6_7  and  N2_8
REMARK    4  A    between atoms: N3_11  and  C8_12
REMARK    5  A    between atoms: N4_18  and  C14_19
REMARK    6  A    between atoms: C14_19  and  C15_20
REMARK                            x       y       z     vdW  Elec       q    Type
REMARK                         _______ _______ _______ _____ _____    ______ ____
ROOT
ATOM      1  N2  UNL     1      -0.908   0.538  -0.222  0.00  0.00    -0.255 N 
ATOM      2  C7  UNL     1       0.128   0.089   0.664  0.00  0.00    +0.305 C 
ATOM      3  O1  UNL     1      -0.161  -0.537   1.719  0.00  0.00    -0.252 OA
ATOM      4  N3  UNL     1       1.502   0.328   0.325  0.00  0.00    -0.296 N 
ATOM      5  H5  UNL     1      -0.624   0.867  -1.171  0.00  0.00    +0.158 HD
ATOM      6  H6  UNL     1       1.708   0.863  -0.549  0.00  0.00    +0.151 HD
ENDROOT
BRANCH   1  11
ATOM      7  C1  UNL     1      -5.824   0.669  -0.763  0.00  0.00    +0.065 C 
ATOM      8  C2  UNL     1      -4.464   0.636  -0.128  0.00  0.00    +0.036 A 
ATOM      9  C3  UNL     1      -4.200   0.681   1.231  0.00  0.00    +0.074 A 
ATOM     10  C5  UNL     1      -2.831   0.628   1.390  0.00  0.00    +0.062 A 
ATOM     11  C6  UNL     1      -2.307   0.536   0.110  0.00  0.00    +0.109 A 
ATOM     12  N4  UNL     1      -3.300   0.534  -0.812  0.00  0.00    -0.318 N 
BRANCH   9  13
ATOM     13  C4  UNL     1      -5.160   0.797   2.297  0.00  0.00    +0.101 C 
ATOM     14  N1  UNL     1      -5.932   0.889   3.154  0.00  0.00    -0.191 NA
ENDBRANCH   9  13
BRANCH  12  15
ATOM     15  C14 UNL     1      -3.141   0.486  -2.268  0.00  0.00    +0.241 C 
BRANCH  15  16
ATOM     16  C15 UNL     1      -2.955   1.841  -2.796  0.00  0.00    +0.084 C 
ATOM     17  N5  UNL     1      -2.808   2.911  -3.212  0.00  0.00    -0.195 NA
ENDBRANCH  15  16
ENDBRANCH  12  15
ENDBRANCH   1  11
BRANCH   4  18
ATOM     18  C8  UNL     1       2.610  -0.152   1.160  0.00  0.00    +0.074 C 
ATOM     19  C9  UNL     1       3.919   0.606   0.816  0.00  0.00    +0.022 C 
ATOM     20  C10 UNL     1       4.729  -0.123  -0.262  0.00  0.00    +0.002 C 
ATOM     21  C11 UNL     1       5.156  -1.530   0.203  0.00  0.00    +0.000 C 
ATOM     22  C12 UNL     1       4.191  -2.157   1.230  0.00  0.00    +0.002 C 
ATOM     23  C13 UNL     1       2.750  -1.688   1.007  0.00  0.00    +0.022 C 
ENDBRANCH   4  18
TORSDOF 5
