REMARK  Name = output_files/generation_1/ligand_1_2.pdb
REMARK  4 active torsions:
REMARK  status: ('A' for Active; 'I' for Inactive)
REMARK    1  A    between atoms: C5_6  and  C6_7
REMARK    2  A    between atoms: N4_16  and  C11_17
REMARK    3  A    between atoms: C11_17  and  C12_18
REMARK    4  A    between atoms: C15_21  and  C16_22
REMARK                            x       y       z     vdW  Elec       q    Type
REMARK                         _______ _______ _______ _____ _____    ______ ____
ROOT
ATOM      1  O1  UNL     1       1.521   2.417  -0.736  0.00  0.00    -0.267 OA
ATOM      2  C1  UNL     1       1.866   1.252  -1.082  0.00  0.00    +0.262 A 
ATOM      3  C2  UNL     1       2.942   0.620  -0.432  0.00  0.00    +0.065 A 
ATOM      4  C3  UNL     1       3.666   1.239   0.601  0.00  0.00    +0.016 A 
ATOM      5  C4  UNL     1       4.727   0.568   1.216  0.00  0.00    +0.014 A 
ATOM      6  C5  UNL     1       5.081  -0.729   0.811  0.00  0.00    +0.041 A 
ATOM      7  C8  UNL     1       4.357  -1.348  -0.221  0.00  0.00    +0.041 A 
ATOM      8  C9  UNL     1       3.294  -0.680  -0.840  0.00  0.00    +0.079 A 
ATOM      9  N3  UNL     1       2.599  -1.286  -1.832  0.00  0.00    -0.237 NA
ATOM     10  C10 UNL     1       1.564  -0.663  -2.450  0.00  0.00    +0.203 A 
ATOM     11  N4  UNL     1       1.195   0.603  -2.089  0.00  0.00    -0.294 N 
ENDROOT
BRANCH   6  12
ATOM     12  C6  UNL     1       6.203  -1.429   1.467  0.00  0.00    +0.248 A 
ATOM     13  N1  UNL     1       6.618  -2.671   1.151  0.00  0.00    -0.108 NA
ATOM     14  N2  UNL     1       7.636  -2.938   1.955  0.00  0.00    -0.116 NA
ATOM     15  C7  UNL     1       7.806  -1.852   2.732  0.00  0.00    +0.332 A 
ATOM     16  O2  UNL     1       6.929  -0.923   2.437  0.00  0.00    -0.423 OA
ENDBRANCH   6  12
BRANCH  11  17
ATOM     17  C11 UNL     1       0.045   1.230  -2.761  0.00  0.00    +0.161 C 
BRANCH  17  18
ATOM     18  C12 UNL     1      -1.219   0.969  -1.984  0.00  0.00    -0.028 A 
ATOM     19  C13 UNL     1      -1.711   1.924  -1.083  0.00  0.00    +0.006 A 
ATOM     20  C14 UNL     1      -2.864   1.664  -0.337  0.00  0.00    +0.009 A 
ATOM     21  C15 UNL     1      -3.543   0.440  -0.474  0.00  0.00    -0.018 A 
ATOM     22  C22 UNL     1      -3.042  -0.517  -1.375  0.00  0.00    +0.009 A 
ATOM     23  C23 UNL     1      -1.889  -0.256  -2.119  0.00  0.00    +0.006 A 
BRANCH  21  24
ATOM     24  C16 UNL     1      -4.768   0.162   0.319  0.00  0.00    -0.018 A 
ATOM     25  C17 UNL     1      -5.867  -0.494  -0.267  0.00  0.00    +0.008 A 
ATOM     26  C18 UNL     1      -7.019  -0.754   0.483  0.00  0.00    +0.001 A 
ATOM     27  C19 UNL     1      -7.086  -0.365   1.822  0.00  0.00    +0.000 A 
ATOM     28  C20 UNL     1      -6.002   0.285   2.415  0.00  0.00    +0.001 A 
ATOM     29  C21 UNL     1      -4.848   0.549   1.671  0.00  0.00    +0.008 A 
ENDBRANCH  21  24
ENDBRANCH  17  18
ENDBRANCH  11  17
TORSDOF 4
