REMARK  Name = output_files/generation_1/ligand_1_3.pdb
REMARK  6 active torsions:
REMARK  status: ('A' for Active; 'I' for Inactive)
REMARK    1  A    between atoms: C1_2  and  C2_3
REMARK    2  A    between atoms: C2_3  and  C3_4
REMARK    3  A    between atoms: C3_4  and  C4_5
REMARK    4  A    between atoms: C4_5  and  C5_6
REMARK    5  A    between atoms: C5_6  and  C6_7
REMARK    6  A    between atoms: C6_7  and  N1_8
REMARK                            x       y       z     vdW  Elec       q    Type
REMARK                         _______ _______ _______ _____ _____    ______ ____
ROOT
ATOM      1  N1  UNL     1      -1.270   0.035  -1.042  0.00  0.00    -0.347 N 
ATOM      2  C7  UNL     1      -1.485  -0.958  -1.938  0.00  0.00    +0.087 A 
ATOM      3  C8  UNL     1      -2.651  -1.651  -1.628  0.00  0.00    +0.027 A 
ATOM      4  C9  UNL     1      -3.141  -1.048  -0.489  0.00  0.00    -0.000 A 
ATOM      5  C10 UNL     1      -4.271  -1.341   0.271  0.00  0.00    +0.010 A 
ATOM      6  C11 UNL     1      -4.514  -0.556   1.413  0.00  0.00    +0.001 A 
ATOM      7  C12 UNL     1      -3.630   0.487   1.766  0.00  0.00    +0.002 A 
ATOM      8  C13 UNL     1      -2.496   0.758   0.979  0.00  0.00    +0.026 A 
ATOM      9  C14 UNL     1      -2.281  -0.034  -0.154  0.00  0.00    +0.049 A 
ENDROOT
BRANCH   1  10
ATOM     10  C6  UNL     1      -0.111   0.928  -1.014  0.00  0.00    +0.122 C 
BRANCH  10  11
ATOM     11  C5  UNL     1       0.962   0.371  -0.073  0.00  0.00    +0.022 C 
BRANCH  11  12
ATOM     12  C4  UNL     1       2.196   1.284  -0.042  0.00  0.00    +0.002 C 
BRANCH  12  13
ATOM     13  C3  UNL     1       3.231   0.851   1.012  0.00  0.00    +0.007 C 
BRANCH  13  14
ATOM     14  C2  UNL     1       3.911  -0.495   0.709  0.00  0.00    +0.071 C 
BRANCH  14  16
ATOM     15  O1  UNL     1       5.636   0.268  -0.720  0.00  0.00    -0.301 OA
ATOM     16  C1  UNL     1       4.672  -0.470  -0.583  0.00  0.00    +0.223 C 
ENDBRANCH  14  16
ENDBRANCH  13  14
ENDBRANCH  12  13
ENDBRANCH  11  12
ENDBRANCH  10  11
ENDBRANCH   1  10
TORSDOF 6
